<PP_INFO>
Generated using Fritz-Haber code                                                
Author: unknown    Generation date: as well                                     
zinc, fhi98PP : Trouiller-Martins-type, LDA Ceperley/Alder Perdew/Wang (1992), local channel l=0
    1        The Pseudo was generated with a Scalar-Relativistic Calculation
nl pn  l   occ               Rcut            Rcut US             E pseu
4s  0  0  2.00      0.00000000000      0.00000000000      0.00000000000
4p  0  1  0.00      0.00000000000      0.00000000000      0.00000000000
3d  0  2 10.00      0.00000000000      0.00000000000      0.00000000000
</PP_INFO>


<PP_HEADER>
   0                   Version Number
  Zn                   Element
   NC                  Norm - Conserving pseudopotential
    F                  Nonlinear Core Correction
SLA  PZ   NOGX NOGC         Exchange-Correlation functional
   12.00000000000      Z valence
    0.00000000000      Total energy
    0.00000    0.00000 Suggested cutoff for wfc and rho
    2                  Max angular momentum component
  527                  Number of points in mesh
    3    2             Number of Wavefunctions, Number of Projectors
 Wavefunctions         nl  l   occ
                       4s  0  2.00
                       4p  1  0.00
                       3d  2 10.00
</PP_HEADER>


<PP_MESH>
  <PP_R>
  2.08333333333E-04  2.13479166667E-04  2.18752102083E-04  2.24155279005E-04
  2.29691914396E-04  2.35365304682E-04  2.41178827707E-04  2.47135944752E-04
  2.53240202587E-04  2.59495235591E-04  2.65904767910E-04  2.72472615678E-04
  2.79202689285E-04  2.86098995710E-04  2.93165640904E-04  3.00406832235E-04
  3.07826880991E-04  3.15430204951E-04  3.23221331013E-04  3.31204897889E-04
  3.39385658867E-04  3.47768484641E-04  3.56358366212E-04  3.65160417857E-04
  3.74179880179E-04  3.83422123219E-04  3.92892649662E-04  4.02597098109E-04
  4.12541246432E-04  4.22731015219E-04  4.33172471295E-04  4.43871831336E-04
  4.54835465570E-04  4.66069901570E-04  4.77581828139E-04  4.89378099294E-04
  5.01465738346E-04  5.13851942083E-04  5.26544085053E-04  5.39549723954E-04
  5.52876602135E-04  5.66532654208E-04  5.80526010767E-04  5.94865003233E-04
  6.09558168813E-04  6.24614255582E-04  6.40042227695E-04  6.55851270719E-04
  6.72050797106E-04  6.88650451795E-04  7.05660117954E-04  7.23089922867E-04
  7.40950243962E-04  7.59251714988E-04  7.78005232348E-04  7.97221961587E-04
  8.16913344039E-04  8.37091103636E-04  8.57767253896E-04  8.78954105067E-04
  9.00664271462E-04  9.22910678968E-04  9.45706572738E-04  9.69065525085E-04
  9.93001443554E-04  1.01752857921E-03  1.04266153512E-03  1.06841527503E-03
  1.09480513233E-03  1.12184681910E-03  1.14955643553E-03  1.17795047948E-03
  1.20704585633E-03  1.23685988898E-03  1.26741032824E-03  1.29871536334E-03
  1.33079363282E-03  1.36366423555E-03  1.39734674217E-03  1.43186120670E-03
  1.46722817851E-03  1.50346871451E-03  1.54060439176E-03  1.57865732024E-03
  1.61765015605E-03  1.65760611490E-03  1.69854898594E-03  1.74050314589E-03
  1.78349357360E-03  1.82754586487E-03  1.87268624773E-03  1.91894159805E-03
  1.96633945552E-03  2.01490804007E-03  2.06467626866E-03  2.11567377250E-03
  2.16793091468E-03  2.22147880827E-03  2.27634933483E-03  2.33257516340E-03
  2.39018976994E-03  2.44922745726E-03  2.50972337545E-03  2.57171354283E-03
  2.63523486733E-03  2.70032516856E-03  2.76702320022E-03  2.83536867326E-03
  2.90540227949E-03  2.97716571580E-03  3.05070170898E-03  3.12605404119E-03
  3.20326757601E-03  3.28238828513E-03  3.36346327578E-03  3.44654081869E-03
  3.53167037691E-03  3.61890263522E-03  3.70828953031E-03  3.79988428171E-03
  3.89374142347E-03  3.98991683663E-03  4.08846778249E-03  4.18945293672E-03
  4.29293242426E-03  4.39896785514E-03  4.50762236116E-03  4.61896063348E-03
  4.73304896112E-03  4.84995527046E-03  4.96974916564E-03  5.09250197004E-03
  5.21828676870E-03  5.34717845188E-03  5.47925375964E-03  5.61459132751E-03
  5.75327173330E-03  5.89537754511E-03  6.04099337047E-03  6.19020590672E-03
  6.34310399262E-03  6.49977866124E-03  6.66032319417E-03  6.82483317707E-03
  6.99340655654E-03  7.16614369849E-03  7.34314744784E-03  7.52452318980E-03
  7.71037891259E-03  7.90082527173E-03  8.09597565594E-03  8.29594625464E-03
  8.50085612713E-03  8.71082727347E-03  8.92598470713E-03  9.14645652939E-03
  9.37237400567E-03  9.60387164361E-03  9.84108727321E-03  1.00841621289E-02
  1.03332409334E-02  1.05884719845E-02  1.08500072425E-02  1.11180024214E-02
  1.13926170812E-02  1.16740147231E-02  1.19623628868E-02  1.22578332501E-02
  1.25606017314E-02  1.28708485941E-02  1.31887585544E-02  1.35145208907E-02
  1.38483295567E-02  1.41903832967E-02  1.45408857642E-02  1.49000456425E-02
  1.52680767699E-02  1.56451982661E-02  1.60316346633E-02  1.64276160395E-02
  1.68333781557E-02  1.72491625961E-02  1.76752169122E-02  1.81117947700E-02
  1.85591561008E-02  1.90175672565E-02  1.94873011677E-02  1.99686375066E-02
  2.04618628530E-02  2.09672708654E-02  2.14851624558E-02  2.20158459685E-02
  2.25596373639E-02  2.31168604068E-02  2.36878468588E-02  2.42729366762E-02
  2.48724782121E-02  2.54868284240E-02  2.61163530861E-02  2.67614270073E-02
  2.74224342544E-02  2.80997683804E-02  2.87938326594E-02  2.95050403261E-02
  3.02338148222E-02  3.09805900483E-02  3.17458106225E-02  3.25299321449E-02
  3.33334214688E-02  3.41567569791E-02  3.50004288765E-02  3.58649394697E-02
  3.67508034746E-02  3.76585483205E-02  3.85887144640E-02  3.95418557112E-02
  4.05185395473E-02  4.15193474741E-02  4.25448753567E-02  4.35957337781E-02
  4.46725484024E-02  4.57759603479E-02  4.69066265685E-02  4.80652202448E-02
  4.92524311848E-02  5.04689662351E-02  5.17155497011E-02  5.29929237787E-02
  5.43018489960E-02  5.56431046662E-02  5.70174893515E-02  5.84258213385E-02
  5.98689391255E-02  6.13477019219E-02  6.28629901594E-02  6.44157060163E-02
  6.60067739549E-02  6.76371412716E-02  6.93077786610E-02  7.10196807939E-02
  7.27738669096E-02  7.45713814222E-02  7.64132945434E-02  7.83007029186E-02
  8.02347302807E-02  8.22165281186E-02  8.42472763631E-02  8.63281840893E-02
  8.84604902363E-02  9.06454643451E-02  9.28844073145E-02  9.51786521751E-02
  9.75295648839E-02  9.99385451365E-02  1.02407027201E-01  1.04936480773E-01
  1.07528411848E-01  1.10184363621E-01  1.12905917402E-01  1.15694693562E-01
  1.18552352493E-01  1.21480595600E-01  1.24481166311E-01  1.27555851119E-01
  1.30706480642E-01  1.33934930714E-01  1.37243123502E-01  1.40633028653E-01
  1.44106664460E-01  1.47666099073E-01  1.51313451720E-01  1.55050893977E-01
  1.58880651058E-01  1.62805003139E-01  1.66826286717E-01  1.70946895999E-01
  1.75169284330E-01  1.79495965653E-01  1.83929516005E-01  1.88472575050E-01
  1.93127847654E-01  1.97898105491E-01  2.02786188696E-01  2.07795007557E-01
  2.12927544244E-01  2.18186854587E-01  2.23576069895E-01  2.29098398821E-01
  2.34757129272E-01  2.40555630365E-01  2.46497354435E-01  2.52585839090E-01
  2.58824709315E-01  2.65217679636E-01  2.71768556323E-01  2.78481239664E-01
  2.85359726283E-01  2.92408111523E-01  2.99630591877E-01  3.07031467497E-01
  3.14615144744E-01  3.22386138819E-01  3.30349076448E-01  3.38508698636E-01
  3.46869863492E-01  3.55437549121E-01  3.64216856584E-01  3.73213012941E-01
  3.82431374361E-01  3.91877429308E-01  4.01556801812E-01  4.11475254816E-01
  4.21638693610E-01  4.32053169343E-01  4.42724882625E-01  4.53660187226E-01
  4.64865593851E-01  4.76347774019E-01  4.88113564037E-01  5.00169969069E-01
  5.12524167305E-01  5.25183514237E-01  5.38155547039E-01  5.51447989051E-01
  5.65068754380E-01  5.79025952613E-01  5.93327893643E-01  6.07983092616E-01
  6.23000275004E-01  6.38388381796E-01  6.54156574827E-01  6.70314242225E-01
  6.86871004008E-01  7.03836717807E-01  7.21221484737E-01  7.39035655410E-01
  7.57289836098E-01  7.75994895050E-01  7.95161968958E-01  8.14802469591E-01
  8.34928090590E-01  8.55550814427E-01  8.76682919544E-01  8.98336987656E-01
  9.20525911251E-01  9.43262901259E-01  9.66561494920E-01  9.90435563845E-01
  1.01489932227E+00  1.03996733553E+00  1.06565452872E+00  1.09197619558E+00
  1.11894800761E+00  1.14658602340E+00  1.17490669818E+00  1.20392689362E+00
  1.23366388789E+00  1.26413538592E+00  1.29535952996E+00  1.32735491035E+00
  1.36014057663E+00  1.39373604887E+00  1.42816132928E+00  1.46343691412E+00
  1.49958380589E+00  1.53662352590E+00  1.57457812699E+00  1.61347020673E+00
  1.65332292083E+00  1.69415999698E+00  1.73600574890E+00  1.77888509090E+00
  1.82282355264E+00  1.86784729440E+00  1.91398312257E+00  1.96125850569E+00
  2.00970159078E+00  2.05934122008E+00  2.11020694821E+00  2.16232905983E+00
  2.21573858761E+00  2.27046733073E+00  2.32654787379E+00  2.38401360628E+00
  2.44289874235E+00  2.50323834129E+00  2.56506832832E+00  2.62842551603E+00
  2.69334762627E+00  2.75987331264E+00  2.82804218347E+00  2.89789482540E+00
  2.96947282758E+00  3.04281880643E+00  3.11797643094E+00  3.19499044879E+00
  3.27390671287E+00  3.35477220868E+00  3.43763508224E+00  3.52254466877E+00
  3.60955152209E+00  3.69870744468E+00  3.79006551856E+00  3.88368013687E+00
  3.97960703625E+00  4.07790333005E+00  4.17862754230E+00  4.28183964260E+00
  4.38760108177E+00  4.49597482849E+00  4.60702540675E+00  4.72081893430E+00
  4.83742316198E+00  4.95690751408E+00  5.07934312967E+00  5.20480290498E+00
  5.33336153673E+00  5.46509556669E+00  5.60008342718E+00  5.73840548784E+00
  5.88014410339E+00  6.02538366274E+00  6.17421063921E+00  6.32671364200E+00
  6.48298346895E+00  6.64311316064E+00  6.80719805571E+00  6.97533584768E+00
  7.14762664312E+00  7.32417302120E+00  7.50508009483E+00  7.69045557317E+00
  7.88040982583E+00  8.07505594853E+00  8.27450983045E+00  8.47889022327E+00
  8.68831881178E+00  8.90292028643E+00  9.12282241751E+00  9.34815613122E+00
  9.57905558766E+00  9.81565826068E+00  1.00581050197E+01  1.03065402137E+01
  1.05611117570E+01  1.08219712174E+01  1.10892739064E+01  1.13631789719E+01
  1.16438494925E+01  1.19314525750E+01  1.22261594536E+01  1.25281455921E+01
  1.28375907882E+01  1.31546792807E+01  1.34795998589E+01  1.38125459755E+01
  1.41537158611E+01  1.45033126428E+01  1.48615444651E+01  1.52286246134E+01
  1.56047716413E+01  1.59902095009E+01  1.63851676756E+01  1.67898813171E+01
  1.72045913857E+01  1.76295447929E+01  1.80649945493E+01  1.85111999146E+01
  1.89684265525E+01  1.94369466884E+01  1.99170392716E+01  2.04089901416E+01
  2.09130921981E+01  2.14296455754E+01  2.19589578211E+01  2.25013440793E+01
  2.30571272780E+01  2.36266383218E+01  2.42102162884E+01  2.48082086307E+01
  2.54209713839E+01  2.60488693770E+01  2.66922764507E+01  2.73515756790E+01
  2.80271595983E+01  2.87194304403E+01  2.94288003722E+01  3.01556917414E+01
  3.09005373274E+01  3.16637805994E+01  3.24458759802E+01  3.32472891169E+01
  3.40684971581E+01  3.49099890379E+01  3.57722657671E+01  3.66558407316E+01
  3.75612399977E+01  3.84890026256E+01  3.94396809905E+01  4.04138411109E+01
  4.14120629864E+01  4.24349409421E+01  4.34830839834E+01  4.45571161578E+01
  4.56576769269E+01  4.67854215470E+01  4.79410214592E+01  4.91251646892E+01
  5.03385562571E+01  5.15819185966E+01  5.28559919859E+01  5.41615349880E+01
  5.54993249022E+01  5.68701582273E+01  5.82748511355E+01  5.97142399585E+01
  6.11891816855E+01  6.27005544731E+01  6.42492581686E+01  6.58362148454E+01
  6.74623693521E+01  6.91286898751E+01  7.08361685150E+01  7.25858218773E+01
  7.43786916777E+01  7.62158453621E+01  7.80983767426E+01
  </PP_R>
  <PP_RAB>
  5.08330975490E-06  5.20886750585E-06  5.33752653324E-06  5.46936343861E-06
  5.60445671555E-06  5.74288679642E-06  5.88473610029E-06  6.03008908197E-06
  6.17903228230E-06  6.33165437967E-06  6.48804624285E-06  6.64830098505E-06
  6.81251401938E-06  6.98078311565E-06  7.15320845861E-06  7.32989270754E-06
  7.51094105741E-06  7.69646130153E-06  7.88656389568E-06  8.08136202390E-06
  8.28097166589E-06  8.48551166604E-06  8.69510380419E-06  8.90987286816E-06
  9.12994672800E-06  9.35545641218E-06  9.58653618556E-06  9.82332362935E-06
  1.00659597230E-05  1.03145889281E-05  1.05693592747E-05  1.08304224488E-05
  1.10979338832E-05  1.13720528502E-05  1.16529425556E-05  1.19407702367E-05
  1.22357072615E-05  1.25379292309E-05  1.28476160829E-05  1.31649522001E-05
  1.34901265195E-05  1.38233326445E-05  1.41647689608E-05  1.45146387542E-05
  1.48731503314E-05  1.52405171446E-05  1.56169579180E-05  1.60026967786E-05
  1.63979633891E-05  1.68029930848E-05  1.72180270140E-05  1.76433122812E-05
  1.80791020945E-05  1.85256559163E-05  1.89832396174E-05  1.94521256360E-05
  1.99325931392E-05  2.04249281897E-05  2.09294239160E-05  2.14463806867E-05
  2.19761062897E-05  2.25189161150E-05  2.30751333431E-05  2.36450891367E-05
  2.42291228383E-05  2.48275821724E-05  2.54408234521E-05  2.60692117914E-05
  2.67131213226E-05  2.73729354193E-05  2.80490469241E-05  2.87418583832E-05
  2.94517822852E-05  3.01792413077E-05  3.09246685680E-05  3.16885078816E-05
  3.24712140263E-05  3.32732530127E-05  3.40951023621E-05  3.49372513905E-05
  3.58002014998E-05  3.66844664769E-05  3.75905727989E-05  3.85190599470E-05
  3.94704807277E-05  4.04454016017E-05  4.14444030212E-05  4.24680797758E-05
  4.35170413463E-05  4.45919122676E-05  4.56933325006E-05  4.68219578133E-05
  4.79784601713E-05  4.91635281375E-05  5.03778672825E-05  5.16222006044E-05
  5.28972689593E-05  5.42038315026E-05  5.55426661408E-05  5.69145699944E-05
  5.83203598733E-05  5.97608727622E-05  6.12369663194E-05  6.27495193875E-05
  6.42994325164E-05  6.58876284995E-05  6.75150529234E-05  6.91826747307E-05
  7.08914867965E-05  7.26425065204E-05  7.44367764314E-05  7.62753648093E-05
  7.81593663201E-05  8.00899026682E-05  8.20681232641E-05  8.40952059087E-05
  8.61723574947E-05  8.83008147248E-05  9.04818448485E-05  9.27167464162E-05
  9.50068500527E-05  9.73535192490E-05  9.97581511745E-05  1.02222177508E-04
  1.04747065293E-04  1.07334317806E-04  1.09985475455E-04  1.12702116699E-04
  1.15485858982E-04  1.18338359699E-04  1.21261317183E-04  1.24256471718E-04
  1.27325606569E-04  1.30470549051E-04  1.33693171613E-04  1.36995392952E-04
  1.40379179157E-04  1.43846544883E-04  1.47399554541E-04  1.51040323538E-04
  1.54771019530E-04  1.58593863712E-04  1.62511132146E-04  1.66525157110E-04
  1.70638328491E-04  1.74853095204E-04  1.79171966656E-04  1.83597514232E-04
  1.88132372834E-04  1.92779242443E-04  1.97540889731E-04  2.02420149707E-04
  2.07419927405E-04  2.12543199612E-04  2.17793016643E-04  2.23172504154E-04
  2.28684865006E-04  2.34333381172E-04  2.40121415687E-04  2.46052414654E-04
  2.52129909296E-04  2.58357518056E-04  2.64738948752E-04  2.71278000786E-04
  2.77978567405E-04  2.84844638020E-04  2.91880300579E-04  2.99089744004E-04
  3.06477260681E-04  3.14047249019E-04  3.21804216070E-04  3.29752780207E-04
  3.37897673878E-04  3.46243746423E-04  3.54795966960E-04  3.63559427344E-04
  3.72539345199E-04  3.81741067025E-04  3.91170071381E-04  4.00831972144E-04
  4.10732521856E-04  4.20877615146E-04  4.31273292240E-04  4.41925742558E-04
  4.52841308399E-04  4.64026488717E-04  4.75487942988E-04  4.87232495180E-04
  4.99267137811E-04  5.11599036115E-04  5.24235532307E-04  5.37184149955E-04
  5.50452598459E-04  5.64048777641E-04  5.77980782449E-04  5.92256907775E-04
  6.06885653397E-04  6.21875729036E-04  6.37236059543E-04  6.52975790214E-04
  6.69104292232E-04  6.85631168250E-04  7.02566258106E-04  7.19919644681E-04
  7.37701659905E-04  7.55922890905E-04  7.74594186310E-04  7.93726662712E-04
  8.13331711281E-04  8.33421004549E-04  8.54006503362E-04  8.75100463995E-04
  8.96715445455E-04  9.18864316958E-04  9.41560265587E-04  9.64816804147E-04
  9.88647779209E-04  1.01306737936E-03  1.03809014363E-03  1.06373097017E-03
  1.09000512514E-03  1.11692825173E-03  1.14451637955E-03  1.17278593412E-03
  1.20175374669E-03  1.23143706424E-03  1.26185355972E-03  1.29302134265E-03
  1.32495896981E-03  1.35768545637E-03  1.39122028714E-03  1.42558342823E-03
  1.46079533891E-03  1.49687698378E-03  1.53384984528E-03  1.57173593646E-03
  1.61055781409E-03  1.65033859209E-03  1.69110195532E-03  1.73287217362E-03
  1.77567411630E-03  1.81953326698E-03  1.86447573867E-03  1.91052828942E-03
  1.95771833817E-03  2.00607398112E-03  2.05562400845E-03  2.10639792146E-03
  2.15842595012E-03  2.21173907109E-03  2.26636902614E-03  2.32234834109E-03
  2.37971034511E-03  2.43848919064E-03  2.49871987365E-03  2.56043825453E-03
  2.62368107941E-03  2.68848600208E-03  2.75489160633E-03  2.82293742900E-03
  2.89266398350E-03  2.96411278389E-03  3.03732636965E-03  3.11234833098E-03
  3.18922333476E-03  3.26799715113E-03  3.34871668076E-03  3.43142998278E-03
  3.51618630335E-03  3.60303610504E-03  3.69203109684E-03  3.78322426493E-03
  3.87666990427E-03  3.97242365091E-03  4.07054251509E-03  4.17108491521E-03
  4.27411071261E-03  4.37968124722E-03  4.48785937402E-03  4.59870950056E-03
  4.71229762522E-03  4.82869137657E-03  4.94796005357E-03  5.07017466689E-03
  5.19540798116E-03  5.32373455830E-03  5.45523080189E-03  5.58997500270E-03
  5.72804738526E-03  5.86953015568E-03  6.01450755052E-03  6.16306588702E-03
  6.31529361443E-03  6.47128136671E-03  6.63112201646E-03  6.79491073027E-03
  6.96274502531E-03  7.13472482743E-03  7.31095253067E-03  7.49153305818E-03
  7.67657392472E-03  7.86618530066E-03  8.06048007758E-03  8.25957393550E-03
  8.46358541171E-03  8.67263597138E-03  8.88685007987E-03  9.10635527684E-03
  9.33128225218E-03  9.56176492381E-03  9.79794051743E-03  1.00399496482E-02
  1.02879364045E-02  1.05420484337E-02  1.08024370300E-02  1.10692572247E-02
  1.13426678781E-02  1.16228317747E-02  1.19099157195E-02  1.22040906378E-02
  1.25055316766E-02  1.28144183090E-02  1.31309344412E-02  1.34552685219E-02
  1.37876136544E-02  1.41281677117E-02  1.44771334541E-02  1.48347186505E-02
  1.52011362011E-02  1.55766042653E-02  1.59613463906E-02  1.63555916465E-02
  1.67595747602E-02  1.71735362567E-02  1.75977226023E-02  1.80323863506E-02
  1.84777862934E-02  1.89341876149E-02  1.94018620489E-02  1.98810880416E-02
  2.03721509162E-02  2.08753430438E-02  2.13909640170E-02  2.19193208282E-02
  2.24607280527E-02  2.30155080356E-02  2.35839910840E-02  2.41665156638E-02
  2.47634286007E-02  2.53750852872E-02  2.60018498937E-02  2.66440955861E-02
  2.73022047471E-02  2.79765692044E-02  2.86675904637E-02  2.93756799482E-02
  3.01012592429E-02  3.08447603462E-02  3.16066259267E-02  3.23873095871E-02
  3.31872761339E-02  3.40070018544E-02  3.48469748002E-02  3.57076950778E-02
  3.65896751462E-02  3.74934401223E-02  3.84195280933E-02  3.93684904373E-02
  4.03408921511E-02  4.13373121872E-02  4.23583437982E-02  4.34045948900E-02
  4.44766883838E-02  4.55752625869E-02  4.67009715728E-02  4.78544855706E-02
  4.90364913642E-02  5.02476927009E-02  5.14888107106E-02  5.27605843352E-02
  5.40637707683E-02  5.53991459062E-02  5.67675048101E-02  5.81696621789E-02
  5.96064528348E-02  6.10787322198E-02  6.25873769056E-02  6.41332851152E-02
  6.57173772575E-02  6.73405964758E-02  6.90039092087E-02  7.07083057662E-02
  7.24548009186E-02  7.42444345013E-02  7.60782720335E-02  7.79574053527E-02
  7.98829532649E-02  8.18560622106E-02  8.38779069472E-02  8.59496912488E-02
  8.80726486226E-02  9.02480430436E-02  9.24771697068E-02  9.47613557985E-02
  9.71019612867E-02  9.95003797305E-02  1.01958039110E-01  1.04476402676E-01
  1.07056969822E-01  1.09701276977E-01  1.12410898518E-01  1.15187447711E-01
  1.18032577670E-01  1.20947982338E-01  1.23935397502E-01  1.26996601820E-01
  1.30133417885E-01  1.33347713307E-01  1.36641401826E-01  1.40016444451E-01
  1.43474850629E-01  1.47018679439E-01  1.50650040821E-01  1.54371096830E-01
  1.58184062921E-01  1.62091209276E-01  1.66094862145E-01  1.70197405240E-01
  1.74401281149E-01  1.78708992793E-01  1.83123104915E-01  1.87646245607E-01
  1.92281107873E-01  1.97030451238E-01  2.01897103383E-01  2.06883961837E-01
  2.11993995694E-01  2.17230247388E-01  2.22595834498E-01  2.28093951610E-01
  2.33727872215E-01  2.39500950659E-01  2.45416624140E-01  2.51478414757E-01
  2.57689931601E-01  2.64054872912E-01  2.70577028272E-01  2.77260280871E-01
  2.84108609808E-01  2.91126092471E-01  2.98316906955E-01  3.05685334556E-01
  3.13235762320E-01  3.20972685649E-01  3.28900710985E-01  3.37024558546E-01
  3.45349065142E-01  3.53879187051E-01  3.62620002971E-01  3.71576717045E-01
  3.80754661956E-01  3.90159302106E-01  3.99796236868E-01  4.09671203919E-01
  4.19790082656E-01  4.30158897697E-01  4.40783822470E-01  4.51671182885E-01
  4.62827461103E-01  4.74259299392E-01  4.85973504087E-01  4.97977049638E-01
  5.10277082764E-01  5.22880926708E-01  5.35796085598E-01  5.49030248912E-01
  5.62591296060E-01  5.76487301073E-01  5.90726537409E-01  6.05317482883E-01
  6.20268824710E-01  6.35589464681E-01  6.51288524458E-01  6.67375351013E-01
  6.83859522183E-01  7.00750852380E-01  7.18059398434E-01  7.35795465576E-01
  7.53969613575E-01  7.72592663031E-01  7.91675701807E-01  8.11230091642E-01
  8.31267474906E-01  8.51799781536E-01  8.72839236140E-01  8.94398365272E-01
  9.16490004895E-01  9.39127308016E-01  9.62323752524E-01  9.86093149211E-01
  1.01044965000E+00  1.03540775635E+00  1.06098232793E+00  1.08718859143E+00
  1.11404214964E+00  1.14155899074E+00  1.16975549781E+00  1.19864845860E+00
  1.22825507553E+00  1.25859297590E+00  1.28968022240E+00  1.32153532390E+00
  1.35417724640E+00  1.38762542438E+00  1.42189977236E+00  1.45702069674E+00
  1.49300910795E+00  1.52988643292E+00  1.56767462781E+00  1.60639619112E+00
  1.64607417704E+00  1.68673220921E+00  1.72839449478E+00  1.77108583880E+00
  1.81483165902E+00  1.85965800100E+00  1.90559155362E+00
  </PP_RAB>
</PP_MESH>


<PP_LOCAL>
 -1.97849815268E+01 -1.97849816080E+01 -1.97849816872E+01 -1.97849817644E+01
 -1.97849818397E+01 -1.97849819132E+01 -1.97849819849E+01 -1.97849820548E+01
 -1.97849821230E+01 -1.97849821895E+01 -1.97849822543E+01 -1.97849823175E+01
 -1.97849823792E+01 -1.97849824393E+01 -1.97849824979E+01 -1.97849825551E+01
 -1.97849826108E+01 -1.97849826651E+01 -1.97849827180E+01 -1.97849827696E+01
 -1.97849828198E+01 -1.97849828688E+01 -1.97849829165E+01 -1.97849829630E+01
 -1.97849830082E+01 -1.97849830523E+01 -1.97849830952E+01 -1.97849831370E+01
 -1.97849831776E+01 -1.97849832172E+01 -1.97849832557E+01 -1.97849832931E+01
 -1.97849833295E+01 -1.97849833648E+01 -1.97849833992E+01 -1.97849834326E+01
 -1.97849834650E+01 -1.97849834965E+01 -1.97849835270E+01 -1.97849835566E+01
 -1.97849835853E+01 -1.97849836131E+01 -1.97849836400E+01 -1.97849836660E+01
 -1.97849836912E+01 -1.97849837155E+01 -1.97849837389E+01 -1.97849837615E+01
 -1.97849837833E+01 -1.97849838042E+01 -1.97849838243E+01 -1.97849838435E+01
 -1.97849838620E+01 -1.97849838796E+01 -1.97849838964E+01 -1.97849839123E+01
 -1.97849839275E+01 -1.97849839418E+01 -1.97849839553E+01 -1.97849839679E+01
 -1.97849839798E+01 -1.97849839907E+01 -1.97849840008E+01 -1.97849840101E+01
 -1.97849840184E+01 -1.97849840259E+01 -1.97849840325E+01 -1.97849840381E+01
 -1.97849840428E+01 -1.97849840466E+01 -1.97849840493E+01 -1.97849840511E+01
 -1.97849840519E+01 -1.97849840516E+01 -1.97849840502E+01 -1.97849840477E+01
 -1.97849840440E+01 -1.97849840392E+01 -1.97849840332E+01 -1.97849840258E+01
 -1.97849840172E+01 -1.97849840073E+01 -1.97849839959E+01 -1.97849839830E+01
 -1.97849839687E+01 -1.97849839527E+01 -1.97849839352E+01 -1.97849839159E+01
 -1.97849838948E+01 -1.97849838718E+01 -1.97849838469E+01 -1.97849838199E+01
 -1.97849837907E+01 -1.97849837593E+01 -1.97849837256E+01 -1.97849836893E+01
 -1.97849836505E+01 -1.97849836089E+01 -1.97849835644E+01 -1.97849835168E+01
 -1.97849834660E+01 -1.97849834119E+01 -1.97849833541E+01 -1.97849832926E+01
 -1.97849832271E+01 -1.97849831574E+01 -1.97849830832E+01 -1.97849830043E+01
 -1.97849829203E+01 -1.97849828310E+01 -1.97849827361E+01 -1.97849826352E+01
 -1.97849825279E+01 -1.97849824138E+01 -1.97849822926E+01 -1.97849821636E+01
 -1.97849820266E+01 -1.97849818808E+01 -1.97849817257E+01 -1.97849815607E+01
 -1.97849813852E+01 -1.97849811983E+01 -1.97849809994E+01 -1.97849807875E+01
 -1.97849805618E+01 -1.97849803213E+01 -1.97849800649E+01 -1.97849797915E+01
 -1.97849794998E+01 -1.97849791884E+01 -1.97849788560E+01 -1.97849785008E+01
 -1.97849781213E+01 -1.97849777154E+01 -1.97849772813E+01 -1.97849768166E+01
 -1.97849763190E+01 -1.97849757858E+01 -1.97849752143E+01 -1.97849746013E+01
 -1.97849739435E+01 -1.97849732371E+01 -1.97849724783E+01 -1.97849716626E+01
 -1.97849707853E+01 -1.97849698412E+01 -1.97849688246E+01 -1.97849677293E+01
 -1.97849665486E+01 -1.97849652751E+01 -1.97849639006E+01 -1.97849624165E+01
 -1.97849608128E+01 -1.97849590792E+01 -1.97849572040E+01 -1.97849551746E+01
 -1.97849529770E+01 -1.97849505960E+01 -1.97849480149E+01 -1.97849452155E+01
 -1.97849421777E+01 -1.97849388796E+01 -1.97849352970E+01 -1.97849314035E+01
 -1.97849271700E+01 -1.97849225648E+01 -1.97849175528E+01 -1.97849120956E+01
 -1.97849061512E+01 -1.97848996732E+01 -1.97848926109E+01 -1.97848849082E+01
 -1.97848765040E+01 -1.97848673308E+01 -1.97848573144E+01 -1.97848463734E+01
 -1.97848344184E+01 -1.97848213510E+01 -1.97848070630E+01 -1.97847914354E+01
 -1.97847743375E+01 -1.97847556256E+01 -1.97847351416E+01 -1.97847127115E+01
 -1.97846881443E+01 -1.97846612297E+01 -1.97846317364E+01 -1.97845994101E+01
 -1.97845639712E+01 -1.97845251120E+01 -1.97844824945E+01 -1.97844357465E+01
 -1.97843844591E+01 -1.97843281825E+01 -1.97842664223E+01 -1.97841986348E+01
 -1.97841242224E+01 -1.97840425283E+01 -1.97839528305E+01 -1.97838543359E+01
 -1.97837461730E+01 -1.97836273847E+01 -1.97834969198E+01 -1.97833536243E+01
 -1.97831962317E+01 -1.97830233522E+01 -1.97828334616E+01 -1.97826248887E+01
 -1.97823958020E+01 -1.97821441953E+01 -1.97818678719E+01 -1.97815644284E+01
 -1.97812312366E+01 -1.97808654242E+01 -1.97804638552E+01 -1.97800231079E+01
 -1.97795394525E+01 -1.97790088276E+01 -1.97784268152E+01 -1.97777886154E+01
 -1.97770890199E+01 -1.97763223854E+01 -1.97754826065E+01 -1.97745630894E+01
 -1.97735567250E+01 -1.97724558642E+01 -1.97712522941E+01 -1.97699372172E+01
 -1.97685012326E+01 -1.97669343215E+01 -1.97652258376E+01 -1.97633645021E+01
 -1.97613384057E+01 -1.97591350171E+01 -1.97567412000E+01 -1.97541432379E+01
 -1.97513268687E+01 -1.97482773277E+01 -1.97449794008E+01 -1.97414174860E+01
 -1.97375756637E+01 -1.97334377743E+01 -1.97289875020E+01 -1.97242084629E+01
 -1.97190842957E+01 -1.97135987529E+01 -1.97077357895E+01 -1.97014796476E+01
 -1.96948149348E+01 -1.96877266937E+01 -1.96802004605E+01 -1.96722223126E+01
 -1.96637789035E+01 -1.96548574840E+01 -1.96454459118E+01 -1.96355326473E+01
 -1.96251067398E+01 -1.96141578020E+01 -1.96026759782E+01 -1.95906519047E+01
 -1.95780766665E+01 -1.95649417506E+01 -1.95512389997E+01 -1.95369605658E+01
 -1.95220988664E+01 -1.95066465445E+01 -1.94905964333E+01 -1.94739415263E+01
 -1.94566749533E+01 -1.94387899640E+01 -1.94202799168E+01 -1.94011382759E+01
 -1.93813586150E+01 -1.93609346272E+01 -1.93398601423E+01 -1.93181291495E+01
 -1.92957358272E+01 -1.92726745773E+01 -1.92489400652E+01 -1.92245272645E+01
 -1.91994315059E+01 -1.91736485295E+01 -1.91471745406E+01 -1.91200062675E+01
 -1.90921410218E+01 -1.90635767583E+01 -1.90343121367E+01 -1.90043465810E+01
 -1.89736803378E+01 -1.89423145315E+01 -1.89102512145E+01 -1.88774934122E+01
 -1.88440451604E+01 -1.88099115334E+01 -1.87750986620E+01 -1.87396137374E+01
 -1.87034650014E+01 -1.86666617192E+01 -1.86292141331E+01 -1.85911333955E+01
 -1.85524314782E+01 -1.85131210577E+01 -1.84732153739E+01 -1.84327280615E+01
 -1.83916729540E+01 -1.83500638607E+01 -1.83079143180E+01 -1.82652373172E+01
 -1.82220450139E+01 -1.81783484250E+01 -1.81341571198E+01 -1.80894789178E+01
 -1.80443196049E+01 -1.79986826844E+01 -1.79525691824E+01 -1.79059775292E+01
 -1.78589035433E+01 -1.78113405462E+01 -1.77632796393E+01 -1.77147101767E+01
 -1.76656204689E+01 -1.76159987504E+01 -1.75658344452E+01 -1.75151197566E+01
 -1.74638516042E+01 -1.74120339168E+01 -1.73596802797E+01 -1.73068169145E+01
 -1.72534859479E+01 -1.71997488982E+01 -1.71456902787E+01 -1.70914211800E+01
 -1.70370826562E+01 -1.69828487008E+01 -1.69289285568E+01 -1.68755680707E+01
 -1.68230497644E+01 -1.67716912797E+01 -1.67218418331E+01 -1.66738763229E+01
 -1.66281867519E+01 -1.65851706682E+01 -1.65452163938E+01 -1.65086848978E+01
 -1.64758882928E+01 -1.64470650702E+01 -1.64223523646E+01 -1.64017557309E+01
 -1.63851171402E+01 -1.63720821434E+01 -1.63620674228E+01 -1.63542302405E+01
 -1.63474415991E+01 -1.63402652513E+01 -1.63309450086E+01 -1.63174030924E+01
 -1.62972525016E+01 -1.62678264987E+01 -1.62262282742E+01 -1.61694035607E+01
 -1.60942383608E+01 -1.59976829379E+01 -1.58769017439E+01 -1.57294469713E+01
 -1.55534509089E+01 -1.53478292416E+01 -1.51124838520E+01 -1.48484895030E+01
 -1.45582438617E+01 -1.42455543375E+01 -1.39156275416E+01 -1.35749166835E+01
 -1.32307670389E+01 -1.28907769801E+01 -1.25617584176E+01 -1.22481322653E+01
 -1.19495294337E+01 -1.16601479720E+01 -1.13779889843E+01 -1.11028385123E+01
 -1.08344929675E+01 -1.05727584541E+01 -1.03174500920E+01 -1.00683913501E+01
 -9.82541340288E+00 -9.58835451866E+00 -9.35705948730E+00 -9.13137909119E+00
 -8.91116962251E+00 -8.69629244741E+00 -8.48661361589E+00 -8.28200351552E+00
 -8.08233656599E+00 -7.88749095088E+00 -7.69734838311E+00 -7.51179390005E+00
 -7.33071568463E+00 -7.15400490895E+00 -6.98155559707E+00 -6.81326450410E+00
 -6.64903100901E+00 -6.48875701876E+00 -6.33234688210E+00 -6.17970731104E+00
 -6.03074730893E+00 -5.88537810390E+00 -5.74351308663E+00 -5.60506775189E+00
 -5.46995964314E+00 -5.33810829970E+00 -5.20943520619E+00 -5.08386374382E+00
 -4.96131914344E+00 -4.84172844006E+00 -4.72502042877E+00 -4.61112562183E+00
 -4.49997620706E+00 -4.39150600723E+00 -4.28565044050E+00 -4.18234648190E+00
 -4.08153262576E+00 -3.98314884903E+00 -3.88713657552E+00 -3.79343864104E+00
 -3.70199925931E+00 -3.61276398877E+00 -3.52567970017E+00 -3.44069454491E+00